#LAMMPS data file, generated for lipid models in Grime & Madsen (2019) arXiv:1910.05362
#Number of lipids: 47
1869 atoms
3 atom types
18580 bonds
61 bond types
0 angles
0 angle types

-700 700 xlo xhi
-700 700 ylo yhi
-150 150 zlo zhi

Masses

         1  190
         2  190
         3  190

Atoms
   
	1   	1	1	    33.496	 106.936	  30.114 
	2   	1	3	    29.005	 105.060	  37.428 
	3   	1	3	    27.200	 102.878	  42.489 
	4   	1	3	    26.014	 100.599	  46.172 
	5   	1	2	    24.281	  98.658	  49.791 
	6   	1	1	    21.909	  97.542	  54.072 
	7   	1	1	    23.174	 100.474	  59.873 
	8   	1	2	    26.053	 105.119	  59.183 
	9   	1	3	    25.150	 107.559	  54.669 
	10  	1	3	    23.948	 109.336	  50.696 
	11  	1	3	    22.985	 110.716	  46.598 
	12  	1	3	    23.440	 113.427	  41.484 
	13  	1	2	    27.908	 114.433	  37.168 
	14  	1	1	    35.440	 115.412	  34.620 
	15  	1	1	    35.425	 119.145	  40.264 
	16  	1	2	    35.048	 115.843	  43.641 
	17  	1	3	    35.281	 112.949	  47.130 
	18  	1	3	    35.589	 110.507	  50.910 
	19  	1	3	    36.255	 108.326	  54.820 
	20  	1	3	    37.413	 105.719	  58.323 
	21  	1	2	    38.153	 103.322	  62.036 
	22  	1	1	    38.858	 101.058	  65.876 
	23  	1	1	    38.990	  98.864	  69.837 
	24  	1	1	    40.212	  97.032	  76.279 
	25  	1	1	    32.212	  94.515	  56.868 
	26  	1	2	    34.777	  98.146	  52.753 
	27  	1	3	    36.156	 100.728	  49.401 
	28  	1	3	    37.367	 103.178	  45.792 
	29  	1	3	    38.867	 105.422	  42.180 
	30  	1	2	    40.660	 107.679	  38.740 
	31  	1	1	    42.657	 110.560	  35.826 
	32  	1	1	    32.481	  91.199	  26.209 
	33  	1	1	    29.246	  97.662	  26.738 
	34  	1	1	    25.767	 100.847	  27.207 
	35  	1	1	    22.335	 103.800	  27.250 
	36  	1	1	    19.093	 106.937	  26.958 
	37  	1	1	    16.088	 110.212	  27.321 
	38  	1	1	    13.258	 113.798	  27.806 
	39  	1	2	     8.362	 113.348	  30.723 
	40  	1	3	     6.131	 110.457	  34.058 
	41  	1	3	     4.197	 108.150	  37.382 
	42  	1	3	     2.313	 106.144	  41.002 
	43  	1	2	     0.988	 104.055	  44.710 
	44  	1	1	     0.395	 101.759	  48.927 
	45  	1	1	    -0.024	 108.481	  52.848 
	46  	1	2	     0.200	 110.538	  48.651 
	47  	1	3	    -0.926	 111.684	  44.450 
	48  	1	3	    -2.085	 113.562	  40.501 
	49  	1	3	    -3.470	 115.690	  36.754 
	50  	1	3	    -5.249	 117.670	  33.195 
	51  	1	2	    -6.923	 119.752	  29.549 
	52  	1	2	    -1.270	 123.928	  31.012 
	53  	1	2	     7.235	 125.468	  34.336 
	54  	1	3	     7.952	 122.915	  38.108 
	55  	1	3	     8.916	 120.541	  41.779 
	56  	1	3	     9.996	 118.131	  45.416 
	57  	1	3	    11.498	 115.238	  48.605 
	58  	1	2	    12.518	 111.774	  51.291 
	59  	1	2	    13.194	 108.285	  54.049 
	60  	1	1	    13.698	 105.092	  56.884 
	61  	1	1	    14.682	 102.710	  61.486 
	62  	1	1	    11.961	 102.150	  66.894 
	63  	1	1	     3.426	 100.643	  65.739 
	64  	1	1	    -0.210	 104.705	  62.153 
	65  	1	1	     4.562	 102.919	  57.889 
	66  	1	1	     8.687	  95.186	  55.148 
	67  	1	1	     6.181	  94.886	  49.880 
	68  	1	2	     9.788	  99.739	  47.430 
	69  	1	3	    11.619	 103.248	  44.713 
	70  	1	3	    13.494	 106.533	  42.221 
	71  	1	3	    15.130	 110.255	  40.270 
	72  	1	3	    16.517	 114.099	  38.358 
	73  	1	2	    17.374	 118.095	  36.523 
	74  	1	1	    18.750	 121.834	  34.432 
	75  	1	1	    12.183	 119.427	  24.150 
	76  	1	1	   -11.274	 107.025	  12.558 
	77  	1	1	   -13.811	 106.464	  16.626 
	78  	1	2	   -15.486	 105.662	  20.623 
	79  	1	3	   -17.057	 104.628	  24.766 
	80  	1	3	   -18.238	 103.454	  28.904 
	81  	1	3	   -18.845	 102.031	  33.179 
	82  	1	3	   -18.995	  99.264	  37.294 
	83  	1	2	   -18.110	  96.935	  41.585 
	84  	1	1	   -22.445	 100.847	  45.741 
	85  	1	2	   -23.584	 104.427	  42.153 
	86  	1	3	   -24.702	 105.089	  37.313 
	87  	1	3	   -26.679	 105.616	  33.333 
	88  	1	3	   -28.667	 105.923	  29.478 
	89  	1	3	   -30.181	 106.413	  24.788 
	90  	1	2	   -27.731	 110.708	  21.267 
	91  	1	2	   -23.304	 113.958	  23.660 
	92  	1	2	   -20.719	 115.317	  27.046 
	93  	1	3	   -18.445	 115.435	  31.766 
	94  	1	3	   -16.815	 113.614	  35.841 
	95  	1	3	   -15.254	 112.002	  39.728 
	96  	1	3	   -13.197	 110.238	  43.350 
	97  	1	2	   -11.193	 107.991	  46.719 
	98  	1	1	    -9.215	 105.310	  49.734 
	99  	1	1	    -7.923	 101.975	  52.805 
	100 	1	1	    -6.742	  99.830	  59.011 
	101 	1	1	   -12.965	 102.637	  60.746 
	102 	1	1	   -19.765	 100.839	  55.925 
	103 	1	1	   -21.329	 101.870	  51.553 
	104 	1	1	   -13.234	  98.504	  51.345 
	105 	1	1	    -6.049	  97.118	  46.354 
	106 	1	2	    -7.347	  99.342	  41.160 
	107 	1	3	    -8.881	 101.995	  37.158 
	108 	1	3	   -10.171	 104.619	  33.752 
	109 	1	3	   -10.926	 108.430	  30.489 
	110 	1	3	   -11.089	 112.031	  27.767 
	111 	1	2	   -11.578	 115.814	  25.316 
	112 	1	1	   -12.677	 119.447	  22.934 
	113 	1	1	   -13.819	 122.891	  20.249 
	114 	1	1	   -14.754	 126.406	  17.585 
	115 	1	1	   -14.887	 129.589	  14.345 
	116 	1	1	   -15.144	 133.240	  11.716 
	117 	1	1	   -17.554	 136.110	  11.109 
	118 	1	1	   -21.791	 103.943	  -2.694 
	119 	1	1	   -25.023	 100.673	  -0.156 
	120 	1	1	   -28.445	  98.873	   2.184 
	121 	1	1	   -31.727	  97.557	   4.947 
	122 	1	1	   -34.790	  95.837	   7.815 
	123 	1	2	   -35.181	  92.649	  12.034 
	124 	1	3	   -34.882	  90.060	  16.277 
	125 	1	3	   -34.688	  87.446	  19.923 
	126 	1	3	   -33.551	  84.975	  24.251 
	127 	1	3	   -33.034	  83.428	  28.101 
	128 	1	2	   -30.514	  80.245	  32.768 
	129 	1	2	   -37.411	  82.633	  36.143 
	130 	1	2	   -39.088	  85.863	  32.593 
	131 	1	3	   -41.560	  87.144	  28.807 
	132 	1	3	   -44.301	  88.079	  25.307 
	133 	1	3	   -47.127	  88.220	  21.765 
	134 	1	3	   -49.858	  88.197	  18.236 
	135 	1	3	   -52.531	  88.325	  14.593 
	136 	1	3	   -54.025	  93.916	  13.102 
	137 	1	3	   -50.824	  97.161	  15.196 
	138 	1	3	   -48.150	  99.376	  18.084 
	139 	1	3	   -44.152	  99.771	  22.116 
	140 	1	3	   -41.229	  99.276	  25.558 
	141 	1	3	   -38.404	  98.418	  28.929 
	142 	1	3	   -36.142	  97.146	  32.617 
	143 	1	3	   -34.029	  96.057	  36.471 
	144 	1	2	   -32.062	  95.103	  40.351 
	145 	1	1	   -29.485	  94.729	  44.050 
	146 	1	1	   -27.253	  93.929	  50.240 
	147 	1	1	   -32.292	  93.150	  52.444 
	148 	1	1	   -36.637	  92.302	  53.213 
	149 	1	1	   -40.975	  92.120	  54.462 
	150 	1	1	   -42.233	  87.802	  52.389 
	151 	1	1	   -36.924	  81.954	  50.185 
	152 	1	1	   -37.206	  83.202	  46.170 
	153 	1	1	   -35.810	  84.555	  41.608 
	154 	1	1	   -29.606	  86.788	  44.881 
	155 	1	1	   -20.917	  88.163	  42.119 
	156 	1	2	   -21.408	  88.302	  37.343 
	157 	1	3	   -24.411	  89.960	  34.016 
	158 	1	3	   -26.514	  92.219	  30.654 
	159 	1	3	   -28.770	  94.322	  27.478 
	160 	1	3	   -30.737	  96.481	  24.171 
	161 	1	3	   -32.755	  98.500	  20.674 
	162 	1	2	   -34.310	 100.959	  17.200 
	163 	1	1	   -35.143	 103.267	  13.710 
	164 	1	1	   -39.762	 102.512	  10.482 
	165 	1	1	   -42.782	 100.635	   7.683 
	166 	1	1	   -45.450	  98.403	   4.416 
	167 	1	1	   -41.133	  97.117	  -2.868 
	168 	1	1	   -23.946	  88.115	 -13.625 
	169 	1	1	   -29.057	  87.138	 -12.842 
	170 	1	1	   -33.113	  86.012	 -11.133 
	171 	1	1	   -36.508	  84.816	  -8.389 
	172 	1	1	   -40.017	  83.071	  -6.134 
	173 	1	1	   -43.479	  81.025	  -4.099 
	174 	1	1	   -47.210	  78.959	  -2.671 
	175 	1	1	   -50.396	  77.199	  -0.784 
	176 	1	2	   -51.385	  73.571	   4.716 
	177 	1	3	   -50.241	  71.667	   8.629 
	178 	1	3	   -49.287	  69.011	  12.124 
	179 	1	3	   -48.815	  66.341	  15.746 
	180 	1	3	   -48.560	  63.747	  19.417 
	181 	1	2	   -50.345	  64.211	  24.354 
	182 	1	2	   -53.784	  68.999	  24.948 
	183 	1	3	   -57.079	  70.164	  20.091 
	184 	1	3	   -59.434	  70.103	  16.236 
	185 	1	3	   -60.835	  69.766	  12.275 
	186 	1	3	   -62.346	  71.181	   7.423 
	187 	1	3	   -64.231	  76.048	   6.733 
	188 	1	3	   -60.885	  79.139	  10.059 
	189 	1	3	   -58.165	  79.260	  13.948 
	190 	1	3	   -55.492	  79.573	  17.862 
	191 	1	3	   -52.568	  79.801	  21.221 
	192 	1	3	   -49.422	  78.915	  24.677 
	193 	1	2	   -46.780	  77.800	  28.176 
	194 	1	2	   -44.474	  76.462	  31.763 
	195 	1	1	   -42.211	  75.626	  35.863 
	196 	1	1	   -39.907	  75.495	  41.933 
	197 	1	1	   -43.505	  70.137	  43.548 
	198 	1	1	   -46.288	  66.137	  46.006 
	199 	1	1	   -48.812	  59.753	  44.795 
	200 	1	1	   -51.710	  50.794	  45.342 
	201 	1	1	   -55.085	  42.046	  44.779 
	202 	1	1	   -59.301	  42.077	  43.103 
	203 	1	1	   -55.154	  40.502	  37.707 
	204 	1	1	   -48.740	  39.465	  38.182 
	205 	1	1	   -46.501	  44.414	  36.674 
	206 	1	1	   -48.646	  51.389	  36.627 
	207 	1	1	   -45.369	  52.591	  39.556 
	208 	1	1	   -47.775	  60.150	  39.847 
	209 	1	1	   -50.268	  65.449	  35.539 
	210 	1	1	   -50.836	  66.583	  31.154 
	211 	1	1	   -43.349	  68.137	  33.227 
	212 	1	2	   -35.411	  70.795	  30.915 
	213 	1	3	   -36.598	  72.322	  25.248 
	214 	1	3	   -40.367	  72.485	  22.733 
	215 	1	3	   -43.471	  74.662	  19.083 
	216 	1	3	   -45.085	  77.111	  15.554 
	217 	1	3	   -46.617	  79.672	  12.234 
	218 	1	2	   -47.793	  82.448	   8.839 
	219 	1	2	   -48.722	  85.427	   5.508 
	220 	1	1	   -49.569	  88.318	   2.236 
	221 	1	1	   -50.117	  91.005	  -1.294 
	222 	1	1	   -50.293	  93.691	  -4.895 
	223 	1	1	   -49.408	  95.447	  -8.693 
	224 	1	1	   -55.128	  89.506	  -9.237 
	225 	1	1	   -57.015	  81.490	 -10.501 
	226 	1	1	   -52.041	  76.981	 -10.602 
	227 	1	1	   -51.271	  77.609	 -17.055 
	228 	1	1	   -54.877	  72.731	 -20.518 
	229 	1	1	   -54.025	  70.089	 -24.257 
	230 	1	1	   -50.158	  66.971	 -26.657 
	231 	1	1	   -46.454	  67.537	 -22.025 
	232 	1	1	   -48.435	  67.806	 -17.939 
	233 	1	1	   -50.790	  68.351	 -14.179 
	234 	1	1	   -54.145	  68.068	 -11.668 
	235 	1	1	   -58.686	  65.184	  -9.928 
	236 	1	2	   -59.787	  60.732	  -6.718 
	237 	1	3	   -58.622	  57.660	  -3.693 
	238 	1	3	   -57.533	  54.840	  -0.194 
	239 	1	3	   -56.589	  52.186	   3.303 
	240 	1	3	   -55.320	  49.664	   6.746 
	241 	1	3	   -53.884	  48.246	  10.717 
	242 	1	3	   -60.543	  48.422	  13.658 
	243 	1	3	   -63.304	  49.340	  10.163 
	244 	1	3	   -65.632	  50.249	   6.519 
	245 	1	3	   -67.819	  51.537	   2.781 
	246 	1	3	   -70.297	  52.777	  -0.666 
	247 	1	3	   -72.249	  52.852	  -5.511 
	248 	1	1	   -71.991	  59.091	  -8.559 
	249 	1	2	   -72.495	  61.014	  -4.316 
	250 	1	3	   -71.871	  62.550	   0.658 
	251 	1	3	   -69.548	  62.829	   5.438 
	252 	1	3	   -67.080	  62.600	   9.206 
	253 	1	3	   -64.388	  62.102	  12.802 
	254 	1	3	   -61.950	  60.828	  16.429 
	255 	1	3	   -60.054	  59.382	  20.203 
	256 	1	2	   -58.161	  58.327	  24.087 
	257 	1	1	   -56.978	  58.686	  29.396 
	258 	1	1	   -55.616	  59.156	  37.762 
	259 	1	1	   -57.770	  55.138	  40.332 
	260 	1	1	   -61.299	  48.896	  34.986 
	261 	1	1	   -60.364	  43.993	  34.682 
	262 	1	1	   -62.602	  39.077	  36.067 
	263 	1	1	   -59.316	  39.480	  28.600 
	264 	1	1	   -55.528	  41.578	  23.558 
	265 	1	2	   -56.583	  45.397	  21.500 
	266 	1	2	   -59.021	  49.388	  22.144 
	267 	1	1	   -54.801	  51.389	  29.019 
	268 	1	1	   -50.647	  49.543	  27.219 
	269 	1	2	   -51.553	  54.772	  20.000 
	270 	1	3	   -52.101	  57.286	  14.114 
	271 	1	3	   -54.486	  59.135	   9.525 
	272 	1	3	   -56.353	  61.670	   6.343 
	273 	1	3	   -58.633	  64.394	   3.568 
	274 	1	2	   -61.418	  66.670	   0.830 
	275 	1	2	   -64.105	  68.338	  -2.348 
	276 	1	1	   -66.644	  69.974	  -5.648 
	277 	1	1	   -67.666	  72.396	 -10.198 
	278 	1	1	   -67.068	  76.591	 -14.763 
	279 	1	1	   -64.073	  74.304	 -17.124 
	280 	1	1	   -61.414	  71.586	 -17.193 
	281 	1	1	   -66.831	  65.327	 -16.079 
	282 	1	1	   -71.032	  58.567	 -18.902 
	283 	1	1	   -73.654	  52.725	 -24.002 
	284 	1	1	   -69.925	  52.948	 -31.617 
	285 	1	1	   -69.568	  57.384	 -33.896 
	286 	1	1	   -67.688	  62.448	 -32.200 
	287 	1	1	   -61.254	  63.370	 -29.631 
	288 	1	1	   -54.933	  57.244	 -32.348 
	289 	1	1	   -49.456	  57.687	 -34.586 
	290 	1	1	   -46.767	  60.286	 -29.368 
	291 	1	1	   -48.882	  55.970	 -26.758 
	292 	1	2	   -51.591	  52.921	 -24.959 
	293 	1	2	   -54.624	  50.590	 -23.027 
	294 	1	2	   -53.883	  46.032	 -20.409 
	295 	1	3	   -53.311	  42.841	 -16.727 
	296 	1	3	   -52.909	  39.989	 -13.337 
	297 	1	3	   -52.694	  37.344	  -9.705 
	298 	1	2	   -52.063	  34.962	  -5.686 
	299 	1	1	   -50.571	  33.186	  -0.734 
	300 	1	1	   -57.955	  31.824	  -0.064 
	301 	1	2	   -59.781	  32.808	  -5.654 
	302 	1	3	   -59.676	  33.599	 -10.256 
	303 	1	3	   -60.084	  34.764	 -14.606 
	304 	1	3	   -60.771	  35.710	 -18.789 
	305 	1	3	   -62.400	  36.572	 -22.562 
	306 	1	2	   -64.744	  40.590	 -25.863 
	307 	1	2	   -67.700	  44.912	 -26.661 
	308 	1	2	   -71.111	  47.596	 -21.294 
	309 	1	3	   -69.333	  45.267	 -17.283 
	310 	1	3	   -68.049	  43.905	 -13.161 
	311 	1	3	   -66.709	  43.278	  -8.888 
	312 	1	3	   -65.008	  43.026	  -4.724 
	313 	1	3	   -63.029	  42.674	  -0.654 
	314 	1	2	   -61.311	  41.762	   3.404 
	315 	1	1	   -59.892	  40.316	   7.472 
	316 	1	1	   -59.052	  38.512	  11.778 
	317 	1	1	   -53.408	  38.760	   8.693 
	318 	1	3	   -51.542	  43.635	  -0.139 
	319 	1	3	   -53.884	  45.930	  -3.874 
	320 	1	3	   -56.261	  47.765	  -7.270 
	321 	1	3	   -58.215	  49.496	 -10.922 
	322 	1	3	   -60.108	  51.487	 -14.507 
	323 	1	2	   -62.216	  53.607	 -17.876 
	324 	1	2	   -64.058	  56.914	 -21.885 
	325 	1	1	   -62.048	  54.717	 -26.740 
	326 	1	1	   -61.746	  51.347	 -30.296 
	327 	1	1	   -61.898	  48.186	 -33.522 
	328 	1	1	   -62.372	  44.925	 -36.511 
	329 	1	1	   -62.822	  41.527	 -39.267 
	330 	1	1	   -59.748	  37.489	 -43.115 
	331 	1	1	   -56.252	  34.733	 -45.379 
	332 	1	1	   -52.941	  32.752	 -47.718 
	333 	1	1	   -50.187	  30.713	 -50.702 
	334 	1	1	   -47.850	  28.273	 -53.666 
	335 	1	1	   -46.011	  25.369	 -56.625 
	336 	1	1	   -43.366	  22.563	 -58.989 
	337 	1	1	   -40.398	  19.987	 -61.204 
	338 	1	1	   -37.605	  17.610	 -63.818 
	339 	1	1	   -34.902	  15.277	 -66.534 
	340 	1	1	   -32.618	  12.463	 -69.258 
	341 	1	1	   -30.371	   9.367	 -71.642 
	342 	1	1	   -28.010	   6.263	 -73.836 
	343 	1	1	   -25.315	   3.424	 -76.190 
	344 	1	1	   -22.867	   0.871	 -78.950 
	345 	1	1	   -20.826	  -1.701	 -82.031 
	346 	1	1	   -22.494	  -7.111	 -79.911 
	347 	1	1	   -22.630	 -12.045	 -64.969 
	348 	1	1	   -19.947	  -9.090	 -66.541 
	349 	1	1	   -15.984	  -6.242	 -69.431 
	350 	1	1	   -12.939	  -0.586	 -75.309 
	351 	1	1	   -13.802	   4.614	 -75.732 
	352 	1	1	   -15.125	  11.235	 -78.832 
	353 	1	1	   -18.917	  27.485	 -63.041 
	354 	1	1	   -19.353	  51.365	 -32.383 
	355 	1	1	   -22.478	  48.437	 -33.833 
	356 	1	1	   -25.708	  45.989	 -35.813 
	357 	1	1	   -29.228	  43.826	 -37.599 
	358 	1	1	   -32.921	  41.929	 -39.376 
	359 	1	1	   -36.607	  39.731	 -40.654 
	360 	1	1	   -40.126	  37.376	 -42.264 
	361 	1	1	   -45.644	  39.494	 -42.499 
	362 	1	1	   -49.094	  42.324	 -43.023 
	363 	1	1	   -52.250	  45.551	 -43.353 
	364 	1	1	   -55.454	  48.727	 -43.073 
	365 	1	1	   -58.979	  51.469	 -42.377 
	366 	1	1	   -62.916	  53.548	 -41.545 
	367 	1	1	   -66.889	  55.590	 -41.150 
	368 	1	1	   -70.497	  55.745	 -42.701 
	369 	1	1	   -69.312	  48.040	 -44.402 
	370 	1	1	   -65.570	  44.686	 -48.514 
	371 	1	1	   -63.124	  45.842	 -52.939 
	372 	1	1	   -61.064	  47.467	 -56.618 
	373 	1	1	   -58.532	  46.108	 -58.126 
	374 	1	1	   -51.944	  38.164	 -53.122 
	375 	1	1	   -48.756	  44.684	 -52.392 
	376 	1	1	   -49.662	  49.483	 -54.896 
	377 	1	1	   -53.820	  54.572	 -50.744 
	378 	1	1	   -52.154	  59.643	 -44.211 
	379 	1	1	   -48.094	  58.250	 -42.180 
	380 	1	1	   -44.465	  56.761	 -39.906 
	381 	1	1	   -40.754	  55.706	 -37.654 
	382 	1	1	   -36.389	  55.789	 -34.712 
	383 	1	1	   -34.203	  50.811	 -30.321 
	384 	1	1	   -36.763	  46.509	 -31.967 
	385 	1	1	   -39.390	  42.988	 -32.836 
	386 	1	2	   -42.102	  39.442	 -33.443 
	387 	1	2	   -44.879	  36.016	 -33.677 
	388 	1	3	   -45.182	  30.625	 -31.915 
	389 	1	3	   -43.622	  28.384	 -28.299 
	390 	1	3	   -42.027	  26.042	 -24.870 
	391 	1	3	   -40.790	  23.580	 -21.293 
	392 	1	3	   -39.448	  21.570	 -17.541 
	393 	1	2	   -39.490	  19.502	 -13.761 
	394 	1	1	   -45.875	  15.526	 -14.998 
	395 	1	2	   -46.265	  16.013	 -19.312 
	396 	1	3	   -46.546	  16.185	 -24.488 
	397 	1	3	   -47.080	  16.326	 -29.006 
	398 	1	3	   -49.251	  16.297	 -32.458 
	399 	1	2	   -48.971	  17.537	 -37.171 
	400 	1	1	   -51.866	  21.769	 -40.388 
	401 	1	2	   -55.998	  23.283	 -33.374 
	402 	1	3	   -56.623	  22.407	 -28.420 
	403 	1	3	   -56.238	  22.775	 -23.944 
	404 	1	3	   -55.785	  23.454	 -19.519 
	405 	1	3	   -54.785	  23.884	 -15.113 
	406 	1	2	   -53.523	  23.918	 -10.805 
	407 	1	1	   -52.480	  23.050	  -6.462 
	408 	1	1	   -51.800	  22.442	  -1.356 
	409 	1	1	   -52.147	  20.880	   4.547 
	410 	1	1	   -58.838	  19.150	   5.708 
	411 	1	1	   -65.163	  17.128	  12.096 
	412 	1	1	   -65.585	  11.543	  17.073 
	413 	1	1	   -62.612	  11.433	  12.167 
	414 	1	1	   -55.920	  13.348	   5.397 
	415 	1	1	   -48.494	  14.607	  -1.574 
	416 	1	1	   -42.214	  11.611	  -5.629 
	417 	1	1	   -43.970	  16.579	  -7.555 
	418 	1	1	   -43.317	  23.295	  -3.235 
	419 	1	2	   -43.589	  29.123	  -7.530 
	420 	1	3	   -45.225	  29.376	 -14.842 
	421 	1	3	   -47.370	  30.781	 -18.532 
	422 	1	3	   -49.903	  31.963	 -22.071 
	423 	1	3	   -52.239	  32.728	 -25.835 
	424 	1	3	   -54.268	  33.623	 -29.757 
	425 	1	2	   -55.956	  34.965	 -33.711 
	426 	1	1	   -57.789	  35.519	 -37.562 
	427 	1	1	   -60.261	  29.579	 -36.587 
	428 	1	3	   -62.894	  12.333	 -33.026 
	429 	1	3	   -60.627	   6.824	 -34.920 
	430 	1	3	   -57.331	   7.756	 -37.846 
	431 	1	2	   -54.131	   9.139	 -40.722 
	432 	1	2	   -51.392	  10.378	 -44.085 
	433 	1	1	   -52.522	  12.108	 -49.074 
	434 	1	1	   -47.325	  17.075	 -50.319 
	435 	1	1	   -38.433	  17.731	 -48.556 
	436 	1	2	   -31.649	  16.508	 -42.543 
	437 	1	3	   -29.771	  16.141	 -38.206 
	438 	1	3	   -27.560	  16.002	 -34.246 
	439 	1	3	   -24.952	  15.309	 -30.614 
	440 	1	3	   -22.507	  14.319	 -27.013 
	441 	1	2	   -20.484	  12.817	 -23.372 
	442 	1	1	   -18.784	  12.628	 -18.185 
	443 	1	1	   -21.873	  11.725	 -14.328 
	444 	1	1	   -22.063	  10.809	  -6.572 
	445 	1	1	   -21.979	  12.755	   2.863 
	446 	1	1	   -16.051	  16.952	   2.518 
	447 	1	1	   -10.630	  18.892	  -4.773 
	448 	1	1	   -13.235	  13.212	  -9.043 
	449 	1	1	   -18.522	   6.554	 -12.679 
	450 	1	1	   -24.361	   4.613	 -18.485 
	451 	1	2	   -25.864	   3.858	 -22.932 
	452 	1	3	   -26.780	   4.143	 -27.355 
	453 	1	3	   -27.985	   4.744	 -31.654 
	454 	1	3	   -29.780	   5.350	 -35.763 
	455 	1	3	   -32.036	   5.387	 -39.687 
	456 	1	3	   -34.198	   5.283	 -43.617 
	457 	1	2	   -36.242	   5.194	 -47.754 
	458 	1	2	   -42.743	   5.828	 -43.117 
	459 	1	3	   -42.445	   6.046	 -38.478 
	460 	1	3	   -41.856	   6.118	 -34.090 
	461 	1	3	   -41.250	   6.413	 -29.660 
	462 	1	3	   -40.235	   7.495	 -25.263 
	463 	1	3	   -38.423	   8.684	 -21.287 
	464 	1	3	   -36.566	   9.197	 -17.543 
	465 	1	2	   -34.975	   7.132	 -14.185 
	466 	1	1	   -31.622	   7.761	 -10.496 
	467 	1	1	   -28.513	  10.327	  -9.272 
	468 	1	1	   -32.534	  17.251	 -11.238 
	469 	1	1	   -28.695	  19.262	 -14.365 
	470 	1	2	   -29.279	  17.753	 -19.680 
	471 	1	3	   -31.151	  17.676	 -23.789 
	472 	1	3	   -33.347	  17.850	 -27.716 
	473 	1	3	   -35.927	  17.667	 -31.416 
	474 	1	3	   -38.626	  17.117	 -34.985 
	475 	1	3	   -41.085	  16.042	 -38.583 
	476 	1	2	   -43.324	  15.110	 -42.433 
	477 	1	2	   -42.241	  14.465	 -47.349 
	478 	1	1	   -36.287	  11.795	 -53.473 
	479 	1	1	   -28.741	  10.653	 -52.201 
	480 	1	1	   -23.148	  15.993	 -50.017 
	481 	1	1	   -20.602	  20.185	 -54.717 
	482 	1	1	   -14.505	  23.913	 -52.606 
	483 	1	1	   -14.661	  21.703	 -48.542 
	484 	1	2	   -14.106	  18.497	 -45.426 
	485 	1	3	   -13.315	  15.013	 -42.784 
	486 	1	3	   -12.432	  10.971	 -40.482 
	487 	1	3	   -15.542	   6.191	 -38.889 
	488 	1	3	   -18.421	   3.983	 -43.229 
	489 	1	3	   -21.948	   2.461	 -45.625 
	490 	1	3	   -25.787	   0.983	 -47.335 
	491 	1	2	   -29.433	  -0.970	 -49.089 
	492 	1	1	   -28.518	  -3.255	 -56.215 
	493 	1	1	   -21.261	  -5.293	 -53.669 
	494 	1	1	   -17.689	  -2.516	 -53.842 
	495 	1	1	   -15.815	   1.594	 -54.235 
	496 	1	1	   -14.268	   5.845	 -54.402 
	497 	1	1	   -13.203	  10.234	 -54.890 
	498 	1	1	   -12.003	  14.415	 -56.156 
	499 	1	1	   -10.619	  18.465	 -57.500 
	500 	1	1	    -8.943	  22.433	 -58.833 
	501 	1	1	    -7.375	  26.526	 -59.851 
	502 	1	1	    -5.606	  30.460	 -59.910 
	503 	1	1	     2.798	  30.530	 -63.194 
	504 	1	1	     8.898	  30.325	 -59.933 
	505 	1	1	     7.182	  30.927	 -51.169 
	506 	1	2	     5.141	  29.354	 -46.810 
	507 	1	3	     5.197	  26.697	 -43.158 
	508 	1	3	     5.713	  23.835	 -39.793 
	509 	1	3	     5.928	  20.766	 -36.462 
	510 	1	3	     5.722	  17.803	 -33.196 
	511 	1	3	     5.431	  15.140	 -29.539 
	512 	1	3	     5.737	  15.361	 -24.332 
	513 	1	3	     5.862	  14.940	 -19.476 
	514 	1	2	     5.936	  12.525	 -14.253 
	515 	1	2	     4.653	  18.216	  -8.234 
	516 	1	1	     5.403	  23.451	  -2.235 
	517 	1	1	     5.608	  22.833	   6.977 
	518 	1	1	     4.666	  19.362	  16.034 
	519 	1	1	     6.597	  13.031	  21.085 
	520 	1	1	    11.646	   5.270	  25.708 
	521 	1	1	    14.496	  -3.607	  27.542 
	522 	1	1	    10.183	  -5.595	  29.166 
	523 	1	1	    10.662	   2.284	  30.891 
	524 	1	1	     7.793	  10.353	  27.900 
	525 	1	1	     4.606	  19.453	  23.963 
	526 	1	1	     8.085	  22.616	  24.551 
	527 	1	1	    12.725	  26.527	  19.254 
	528 	1	1	    18.014	  32.511	  17.330 
	529 	1	1	    21.346	  30.461	  16.341 
	530 	1	1	    24.880	  27.868	  15.405 
	531 	1	1	    29.018	  25.659	  14.684 
	532 	1	1	    33.499	  22.842	  11.947 
	533 	1	1	    30.666	  18.710	   7.389 
	534 	1	1	    25.003	  20.822	   5.677 
	535 	1	1	    20.455	  22.923	   5.158 
	536 	1	1	    15.850	  26.173	   8.858 
	537 	1	1	    12.745	  23.772	  12.036 
	538 	1	1	    13.240	  20.157	  20.027 
	539 	1	1	    11.962	  16.682	  29.256 
	540 	1	1	    11.021	  11.572	  34.644 
	541 	1	1	     5.475	   6.398	  35.131 
	542 	1	1	     6.062	  -2.513	  37.569 
	543 	1	1	     8.148	 -10.181	  39.814 
	544 	1	1	    12.234	 -10.657	  38.446 
	545 	1	1	    16.333	 -11.237	  36.622 
	546 	1	1	    20.306	 -12.417	  35.044 
	547 	1	1	    25.737	 -13.874	  33.263 
	548 	1	1	    24.700	 -13.911	  27.654 
	549 	1	1	    19.958	  -5.314	  25.869 
	550 	1	1	    14.856	   2.506	  22.390 
	551 	1	1	     8.452	   9.276	  17.784 
	552 	1	1	     1.710	  15.019	  13.978 
	553 	1	1	    -3.501	  19.387	   9.231 
	554 	1	1	     0.367	  13.877	   5.392 
	555 	1	1	     2.855	  10.205	  10.524 
	556 	1	1	     9.723	   6.497	  14.486 
	557 	1	1	    17.572	   0.819	  18.567 
	558 	1	1	    24.144	  -3.820	  24.778 
	559 	1	1	    28.895	  -4.862	  32.299 
	560 	1	1	    25.740	  -4.350	  35.446 
	561 	1	1	    22.686	  -3.724	  38.706 
	562 	1	1	    19.604	  -3.303	  41.941 
	563 	1	1	    18.767	  -4.412	  46.761 
	564 	1	1	    22.960	   0.765	  50.789 
	565 	1	1	    22.977	   3.634	  45.453 
	566 	1	1	    24.229	   5.582	  38.557 
	567 	1	1	    26.612	   4.449	  29.423 
	568 	1	1	    23.710	   6.451	  22.605 
	569 	1	1	    20.318	  13.001	  18.231 
	570 	1	1	    14.273	  13.592	  11.838 
	571 	1	1	     7.973	  11.632	   6.746 
	572 	1	1	    10.506	   7.438	   9.450 
	573 	1	1	    19.401	  10.015	  12.089 
	574 	1	1	    26.013	  13.422	  11.582 
	575 	1	1	    27.315	  10.046	  15.782 
	576 	1	1	    30.856	   8.442	  20.668 
	577 	1	1	    25.578	   8.767	  27.579 
	578 	1	1	    20.032	   6.472	  35.569 
	579 	1	1	    13.884	   5.214	  42.947 
	580 	1	1	     7.932	   6.764	  50.725 
	581 	1	1	     3.921	   4.818	  50.556 
	582 	1	1	     6.814	   2.296	  44.182 
	583 	1	1	    13.031	   5.958	  37.385 
	584 	1	1	    19.664	  11.924	  32.206 
	585 	1	1	    25.750	  16.717	  29.404 
	586 	1	1	    22.409	  22.673	  27.017 
	587 	1	1	    18.759	  22.787	  31.412 
	588 	1	1	    18.193	  16.709	  33.862 
	589 	1	1	    16.387	  16.042	  24.654 
	590 	1	1	    15.230	  17.431	  15.036 
	591 	1	1	    10.266	  18.967	   7.051 
	592 	1	1	     3.686	  18.686	   1.021 
	593 	1	1	    -0.321	  15.094	  -5.818 
	594 	1	2	     0.924	   7.644	 -10.543 
	595 	1	2	     6.599	   2.014	 -14.327 
	596 	1	3	     5.759	   3.429	 -19.788 
	597 	1	3	     5.357	   3.547	 -24.420 
	598 	1	3	     5.471	   3.936	 -28.924 
	599 	1	3	     5.567	   4.770	 -33.311 
	600 	1	3	     5.131	   6.016	 -37.642 
	601 	1	3	     4.503	   7.119	 -41.941 
	602 	1	3	     5.081	   8.266	 -46.843 
	603 	1	2	     5.399	   6.018	 -51.272 
	604 	1	1	     2.881	   5.824	 -56.351 
	605 	1	1	    -1.674	   7.923	 -60.021 
	606 	1	1	    -3.254	  13.039	 -61.377 
	607 	1	1	    -9.092	  15.431	 -65.496 
	608 	1	1	   -15.053	  12.364	 -65.362 
	609 	1	1	   -18.826	  10.541	 -63.795 
	610 	1	1	   -22.506	   8.687	 -61.960 
	611 	1	1	   -26.247	   6.731	 -60.424 
	612 	1	1	   -30.112	   4.692	 -59.528 
	613 	1	1	   -32.904	   2.048	 -61.825 
	614 	1	1	   -27.810	  -1.425	 -65.340 
	615 	1	1	   -23.274	  -1.273	 -65.330 
	616 	1	1	   -18.873	  -0.358	 -65.225 
	617 	1	1	   -14.447	   0.430	 -65.324 
	618 	1	1	    -9.962	   0.726	 -65.608 
	619 	1	1	    -5.420	   0.894	 -66.777 
	620 	1	1	    -5.535	   5.250	 -70.195 
	621 	1	1	    -6.872	   9.233	 -71.360 
	622 	1	1	    -7.224	  15.089	 -70.651 
	623 	1	1	    -8.724	  21.546	 -76.071 
	624 	1	1	    75.928	 -82.485	  30.109 
	625 	1	3	    76.557	 -77.657	  37.422 
	626 	1	3	    75.569	 -75.002	  42.484 
	627 	1	3	    74.179	 -72.863	  46.168 
	628 	1	2	    73.372	 -70.364	  49.787 
	629 	1	1	    73.591	 -67.758	  54.068 
	630 	1	1	    75.495	 -70.320	  59.870 
	631 	1	2	    78.072	 -75.139	  59.181 
	632 	1	3	    80.638	 -75.580	  54.671 
	633 	1	3	    82.782	 -75.427	  50.697 
	634 	1	3	    84.463	 -75.284	  46.600 
	635 	1	3	    86.583	 -77.034	  41.487 
	636 	1	2	    85.216	 -81.403	  37.169 
	637 	1	1	    82.288	 -88.413	  34.618 
	638 	1	1	    85.523	 -90.271	  40.262 
	639 	1	2	    82.853	 -88.291	  43.639 
	640 	1	3	    80.231	 -87.045	  47.127 
	641 	1	3	    77.960	 -86.090	  50.905 
	642 	1	3	    75.736	 -85.575	  54.813 
	643 	1	3	    72.898	 -85.271	  58.314 
	644 	1	2	    70.452	 -84.713	  62.026 
	645 	1	1	    68.143	 -84.189	  65.869 
	646 	1	1	    66.184	 -83.202	  69.832 
	647 	1	1	    63.997	 -83.355	  76.279 
	648 	1	1	    65.809	 -75.154	  56.867 
	649 	1	2	    67.667	 -79.194	  52.749 
	650 	1	3	    69.212	 -81.680	  49.396 
	651 	1	3	    70.738	 -83.909	  45.774 
	652 	1	3	    71.920	 -86.377	  42.174 
	653 	1	2	    72.977	 -89.054	  38.735 
	654 	1	1	    74.469	 -92.226	  35.823 
	655 	1	1	    62.815	 -73.723	  26.205 
	656 	1	1	    70.029	 -74.162	  26.734 
	657 	1	1	    74.528	 -72.746	  27.201 
	658 	1	1	    78.804	 -71.255	  27.247 
	659 	1	1	    83.141	 -70.019	  26.957 
	660 	1	1	    87.480	 -69.060	  27.323 
	661 	1	1	    92.000	 -68.402	  27.808 
	662 	1	2	    94.056	 -63.936	  30.724 
	663 	1	3	    92.668	 -60.558	  34.058 
	664 	1	3	    91.638	 -57.728	  37.382 
	665 	1	3	    90.845	 -55.096	  41.004 
	666 	1	2	    89.702	 -52.906	  44.712 
	667 	1	1	    88.011	 -51.246	  48.929 
	668 	1	1	    94.042	 -54.244	  52.846 
	669 	1	2	    95.709	 -55.464	  48.648 
	670 	1	3	    97.273	 -55.043	  44.434 
	671 	1	3	    99.468	 -54.992	  40.495 
	672 	1	3	   102.000	 -54.855	  36.746 
	673 	1	3	   104.602	 -54.303	  33.183 
	674 	1	2	   107.237	 -53.894	  29.537 
	675 	1	2	   108.032	 -60.878	  31.005 
	676 	1	2	   105.117	 -69.015	  34.337 
	677 	1	3	   102.547	 -68.359	  38.109 
	678 	1	3	   100.009	 -68.009	  41.781 
	679 	1	3	    97.381	 -67.739	  45.417 
	680 	1	3	    94.126	 -67.595	  48.607 
	681 	1	2	    90.604	 -66.771	  51.306 
	682 	1	2	    87.255	 -65.591	  54.053 
	683 	1	1	    84.237	 -64.429	  56.888 
	684 	1	1	    81.679	 -64.088	  61.489 
	685 	1	1	    82.559	 -61.452	  66.896 
	686 	1	1	    85.532	 -53.311	  65.742 
	687 	1	1	    90.867	 -52.196	  62.154 
	688 	1	1	    86.933	 -55.435	  57.891 
	689 	1	1	    78.172	 -55.132	  55.151 
	690 	1	1	    79.164	 -52.815	  49.883 
	691 	1	2	    81.564	 -58.367	  47.432 
	692 	1	3	    83.685	 -61.707	  44.717 
	693 	1	3	    85.591	 -64.972	  42.225 
	694 	1	3	    87.994	 -68.250	  40.273 
	695 	1	3	    90.630	 -71.374	  38.360 
	696 	1	2	    93.662	 -74.114	  36.527 
	697 	1	1	    96.212	 -77.174	  34.437 
	698 	1	1	    97.412	 -70.287	  24.153 
	699 	1	1	    98.383	 -43.754	  12.553 
	700 	1	1	    99.164	 -41.281	  16.623 
	701 	1	2	    99.310	 -39.430	  20.621 
	702 	1	3	    99.202	 -37.553	  24.764 
	703 	1	3	    98.779	 -35.944	  28.903 
	704 	1	3	    97.853	 -34.709	  33.179 
	705 	1	3	    95.534	 -33.197	  37.296 
	706 	1	2	    93.077	 -32.802	  41.589 
	707 	1	1	    98.634	 -31.005	  45.743 
	708 	1	2	   102.302	 -31.807	  42.152 
	709 	1	3	   103.432	 -31.167	  37.311 
	710 	1	3	   104.875	 -29.717	  33.330 
	711 	1	3	   106.132	 -28.148	  29.475 
	712 	1	3	   107.310	 -27.079	  24.784 
	713 	1	2	   109.801	 -31.347	  21.260 
	714 	1	2	   110.405	 -36.807	  23.650 
	715 	1	2	   110.292	 -39.727	  27.036 
	716 	1	3	   109.261	 -41.757	  31.756 
	717 	1	3	   106.871	 -42.259	  35.832 
	718 	1	3	   104.699	 -42.805	  39.720 
	719 	1	3	   102.144	 -43.707	  43.344 
	720 	1	2	    99.198	 -44.320	  46.715 
	721 	1	1	    95.889	 -44.695	  49.733 
	722 	1	1	    92.357	 -44.148	  52.807 
	723 	1	1	    89.911	 -44.101	  59.013 
	724 	1	1	    95.453	 -40.116	  60.746 
	725 	1	1	    97.296	 -33.326	  55.927 
	726 	1	1	    98.968	 -32.486	  51.554 
	727 	1	1	    92.004	 -37.813	  51.348 
	728 	1	1	    87.209	 -43.342	  46.358 
	729 	1	2	    89.780	 -43.327	  41.163 
	730 	1	3	    92.843	 -43.322	  37.158 
	731 	1	3	    95.758	 -43.515	  33.750 
	732 	1	3	    99.434	 -44.766	  30.485 
	733 	1	3	   102.632	 -46.425	  27.760 
	734 	1	2	   106.151	 -47.891	  25.306 
	735 	1	1	   109.846	 -48.756	  22.922 
	736 	1	1	   113.397	 -49.487	  20.234 
	737 	1	1	   116.913	 -50.433	  17.574 
	738 	1	1	   119.742	 -51.915	  14.342 
	739 	1	1	   123.033	 -53.519	  11.715 
	740 	1	1	   126.722	 -52.867	  11.107 
	741 	1	1	   100.981	 -33.090	  -2.682 
	742 	1	1	    99.761	 -28.658	  -0.145 